3    
Iteration 0 Energy -75.84155449
O       -0.0000000000   -0.3057369295   -0.0781119666
H       -0.0000000000    0.1355082573    0.7926576505
H       -0.0000000000    0.4339997603   -0.7150749690
3    
Iteration 1 Energy -75.84155449
O       -0.0000000000   -0.3058215622   -0.0781836901
H       -0.0000000000    0.1353907583    0.7926237401
H       -0.0000000000    0.4339313500   -0.7151567074
